<?xml version="1.0" encoding="UTF-8"?>

<!-- generated on 09/05/19 12:04:49 by Eclipse SUMO GUI Version 1.2.0
<configuration xmlns:xsi="http://www.w3.org/2001/XMLSchema-instance" xsi:noNamespaceSchemaLocation="http://sumo.dlr.de/xsd/sumoConfiguration.xsd">

    <input>
        <net-file value="data/cross.net.xml"/>
        <route-files value="data/cross.rou.xml"/>
        <additional-files value="data/cross.det.xml"/>
    </input>

    <output>
        <tripinfo-output value="tripinfo.xml"/>
    </output>

    <time>
        <begin value="0"/>
    </time>

    <report>
        <verbose value="true"/>
        <no-step-log value="true"/>
    </report>

    <traci_server>
        <remote-port value="62062"/>
    </traci_server>

</configuration>
-->

<tripinfos xmlns:xsi="http://www.w3.org/2001/XMLSchema-instance" xsi:noNamespaceSchemaLocation="http://sumo.dlr.de/xsd/tripinfo_file.xsd">
    <tripinfo id="right_0" depart="0.00" departLane="51o_0" departPos="5.10" departSpeed="0.00" departDelay="0.00" arrival="86.00" arrivalLane="52i_0" arrivalPos="10.00" arrivalSpeed="12.13" duration="86.00" routeLength="1015.10" waitingTime="0.00" waitingCount="0" stopTime="0.00" timeLoss="17.79" rerouteNo="0" devices="tripinfo_right_0" vType="typeWE" speedFactor="1.06" vaporized=""/>
    <tripinfo id="left_3" depart="4.00" departLane="52o_0" departPos="5.10" departSpeed="0.00" departDelay="0.00" arrival="89.00" arrivalLane="51i_0" arrivalPos="10.00" arrivalSpeed="12.47" duration="85.00" routeLength="1015.10" waitingTime="0.00" waitingCount="0" stopTime="0.00" timeLoss="17.77" rerouteNo="0" devices="tripinfo_left_3" vType="typeWE" speedFactor="1.08" vaporized=""/>
    <tripinfo id="right_4" depart="5.00" departLane="51o_0" departPos="5.10" departSpeed="0.00" departDelay="0.00" arrival="93.00" arrivalLane="52i_0" arrivalPos="10.00" arrivalSpeed="11.78" duration="88.00" routeLength="1015.10" waitingTime="0.00" waitingCount="0" stopTime="0.00" timeLoss="18.02" rerouteNo="0" devices="tripinfo_right_4" vType="typeWE" speedFactor="1.03" vaporized=""/>
    <tripinfo id="left_8" depart="13.00" departLane="52o_0" departPos="5.10" departSpeed="0.00" departDelay="0.00" arrival="106.00" arrivalLane="51i_0" arrivalPos="10.00" arrivalSpeed="10.89" duration="93.00" routeLength="1015.10" waitingTime="0.00" waitingCount="0" stopTime="0.00" timeLoss="15.95" rerouteNo="0" devices="tripinfo_left_8" vType="typeWE" speedFactor="0.94" vaporized=""/>
    <tripinfo id="left_10" depart="18.00" departLane="52o_0" departPos="5.10" departSpeed="0.00" departDelay="3.00" arrival="107.00" arrivalLane="51i_0" arrivalPos="10.00" arrivalSpeed="10.88" duration="89.00" routeLength="1015.10" waitingTime="0.00" waitingCount="0" stopTime="0.00" timeLoss="21.68" rerouteNo="0" devices="tripinfo_left_10" vType="typeWE" speedFactor="1.09" vaporized=""/>
    <tripinfo id="left_13" depart="23.00" departLane="52o_0" departPos="5.10" departSpeed="0.00" departDelay="2.00" arrival="109.00" arrivalLane="51i_0" arrivalPos="10.00" arrivalSpeed="11.59" duration="86.00" routeLength="1015.10" waitingTime="0.00" waitingCount="0" stopTime="0.00" timeLoss="20.07" rerouteNo="0" devices="tripinfo_left_13" vType="typeWE" speedFactor="1.12" vaporized=""/>
    <tripinfo id="right_5" depart="10.00" departLane="51o_0" departPos="5.10" departSpeed="0.00" departDelay="1.00" arrival="111.00" arrivalLane="52i_0" arrivalPos="10.00" arrivalSpeed="9.46" duration="101.00" routeLength="1015.10" waitingTime="0.00" waitingCount="0" stopTime="0.00" timeLoss="14.23" rerouteNo="0" devices="tripinfo_right_5" vType="typeWE" speedFactor="0.83" vaporized=""/>
    <tripinfo id="right_11" depart="18.00" departLane="51o_0" departPos="5.10" departSpeed="0.00" departDelay="0.00" arrival="112.00" arrivalLane="52i_0" arrivalPos="10.00" arrivalSpeed="9.98" duration="94.00" routeLength="1015.10" waitingTime="0.00" waitingCount="0" stopTime="0.00" timeLoss="24.31" rerouteNo="0" devices="tripinfo_right_11" vType="typeWE" speedFactor="1.03" vaporized=""/>
    <tripinfo id="right_16" depart="24.00" departLane="51o_0" departPos="5.10" departSpeed="0.00" departDelay="0.00" arrival="120.00" arrivalLane="52i_0" arrivalPos="10.00" arrivalSpeed="10.29" duration="96.00" routeLength="1015.10" waitingTime="0.00" waitingCount="0" stopTime="0.00" timeLoss="14.69" rerouteNo="0" devices="tripinfo_right_16" vType="typeWE" speedFactor="0.88" vaporized=""/>
    <tripinfo id="right_22" depart="29.00" departLane="51o_0" departPos="5.10" departSpeed="0.00" departDelay="0.00" arrival="122.00" arrivalLane="52i_0" arrivalPos="10.00" arrivalSpeed="10.73" duration="93.00" routeLength="1015.10" waitingTime="0.00" waitingCount="0" stopTime="0.00" timeLoss="19.51" rerouteNo="0" devices="tripinfo_right_22" vType="typeWE" speedFactor="0.98" vaporized=""/>
    <tripinfo id="left_15" depart="28.00" departLane="52o_0" departPos="5.10" departSpeed="0.00" departDelay="5.00" arrival="123.00" arrivalLane="51i_0" arrivalPos="10.00" arrivalSpeed="10.72" duration="95.00" routeLength="1015.10" waitingTime="0.00" waitingCount="0" stopTime="0.00" timeLoss="17.16" rerouteNo="0" devices="tripinfo_left_15" vType="typeWE" speedFactor="0.93" vaporized=""/>
    <tripinfo id="left_17" depart="34.00" departLane="52o_0" departPos="5.10" departSpeed="0.00" departDelay="10.00" arrival="127.00" arrivalLane="51i_0" arrivalPos="10.00" arrivalSpeed="10.75" duration="93.00" routeLength="1015.10" waitingTime="0.00" waitingCount="0" stopTime="0.00" timeLoss="16.92" rerouteNo="0" devices="tripinfo_left_17" vType="typeWE" speedFactor="0.94" vaporized=""/>
    <tripinfo id="left_18" depart="39.00" departLane="52o_0" departPos="5.10" departSpeed="0.00" departDelay="14.00" arrival="132.00" arrivalLane="51i_0" arrivalPos="10.00" arrivalSpeed="10.79" duration="93.00" routeLength="1015.10" waitingTime="0.00" waitingCount="0" stopTime="0.00" timeLoss="16.47" rerouteNo="0" devices="tripinfo_left_18" vType="typeWE" speedFactor="0.94" vaporized=""/>
    <tripinfo id="right_25" depart="34.00" departLane="51o_0" departPos="5.10" departSpeed="0.00" departDelay="3.00" arrival="132.00" arrivalLane="52i_0" arrivalPos="10.00" arrivalSpeed="10.13" duration="98.00" routeLength="1015.10" waitingTime="0.00" waitingCount="0" stopTime="0.00" timeLoss="15.52" rerouteNo="0" devices="tripinfo_right_25" vType="typeWE" speedFactor="0.87" vaporized=""/>
    <tripinfo id="left_19" depart="44.00" departLane="52o_0" departPos="5.10" departSpeed="0.00" departDelay="18.00" arrival="134.00" arrivalLane="51i_0" arrivalPos="10.00" arrivalSpeed="11.39" duration="90.00" routeLength="1015.10" waitingTime="0.00" waitingCount="0" stopTime="0.00" timeLoss="24.77" rerouteNo="0" devices="tripinfo_left_19" vType="typeWE" speedFactor="1.16" vaporized=""/>
    <tripinfo id="right_27" depart="39.00" departLane="51o_0" departPos="5.10" departSpeed="0.00" departDelay="6.00" arrival="134.00" arrivalLane="52i_0" arrivalPos="10.00" arrivalSpeed="10.86" duration="95.00" routeLength="1015.10" waitingTime="0.00" waitingCount="0" stopTime="0.00" timeLoss="18.53" rerouteNo="0" devices="tripinfo_right_27" vType="typeWE" speedFactor="0.95" vaporized=""/>
    <tripinfo id="right_30" depart="44.00" departLane="51o_0" departPos="5.10" departSpeed="0.00" departDelay="10.00" arrival="135.00" arrivalLane="52i_0" arrivalPos="10.00" arrivalSpeed="10.89" duration="91.00" routeLength="1015.10" waitingTime="0.00" waitingCount="0" stopTime="0.00" timeLoss="26.89" rerouteNo="0" devices="tripinfo_right_30" vType="typeWE" speedFactor="1.18" vaporized=""/>
    <tripinfo id="left_21" depart="49.00" departLane="52o_0" departPos="5.10" departSpeed="0.00" departDelay="21.00" arrival="137.00" arrivalLane="51i_0" arrivalPos="10.00" arrivalSpeed="11.49" duration="88.00" routeLength="1015.10" waitingTime="0.00" waitingCount="0" stopTime="0.00" timeLoss="16.82" rerouteNo="0" devices="tripinfo_left_21" vType="typeWE" speedFactor="1.01" vaporized=""/>
    <tripinfo id="right_33" depart="49.00" departLane="51o_0" departPos="5.10" departSpeed="0.00" departDelay="14.00" arrival="137.00" arrivalLane="52i_0" arrivalPos="10.00" arrivalSpeed="11.55" duration="88.00" routeLength="1015.10" waitingTime="0.00" waitingCount="0" stopTime="0.00" timeLoss="23.47" rerouteNo="0" devices="tripinfo_right_33" vType="typeWE" speedFactor="1.17" vaporized=""/>
    <tripinfo id="down_1" depart="0.00" departLane="54o_0" departPos="5.10" departSpeed="0.00" departDelay="0.00" arrival="154.00" arrivalLane="53i_0" arrivalPos="10.00" arrivalSpeed="10.68" duration="154.00" routeLength="1015.10" waitingTime="50.00" waitingCount="1" stopTime="0.00" timeLoss="77.35" rerouteNo="0" devices="tripinfo_down_1" vType="typeNS" speedFactor="0.94" vaporized=""/>
    <tripinfo id="down_2" depart="6.00" departLane="54o_0" departPos="5.10" departSpeed="0.00" departDelay="3.00" arrival="156.00" arrivalLane="53i_0" arrivalPos="10.00" arrivalSpeed="11.01" duration="150.00" routeLength="1015.10" waitingTime="47.00" waitingCount="1" stopTime="0.00" timeLoss="78.64" rerouteNo="0" devices="tripinfo_down_2" vType="typeNS" speedFactor="1.01" vaporized=""/>
    <tripinfo id="down_6" depart="11.00" departLane="54o_0" departPos="5.10" departSpeed="0.00" departDelay="1.00" arrival="157.00" arrivalLane="53i_0" arrivalPos="10.00" arrivalSpeed="10.94" duration="146.00" routeLength="1015.10" waitingTime="44.00" waitingCount="1" stopTime="0.00" timeLoss="77.33" rerouteNo="0" devices="tripinfo_down_6" vType="typeNS" speedFactor="1.05" vaporized=""/>
    <tripinfo id="down_7" depart="16.00" departLane="54o_0" departPos="5.10" departSpeed="0.00" departDelay="4.00" arrival="163.00" arrivalLane="53i_0" arrivalPos="10.00" arrivalSpeed="10.24" duration="147.00" routeLength="1015.10" waitingTime="37.00" waitingCount="1" stopTime="0.00" timeLoss="65.67" rerouteNo="0" devices="tripinfo_down_7" vType="typeNS" speedFactor="0.89" vaporized=""/>
    <tripinfo id="down_9" depart="21.00" departLane="54o_0" departPos="5.10" departSpeed="0.00" departDelay="8.00" arrival="166.00" arrivalLane="53i_0" arrivalPos="10.00" arrivalSpeed="9.59" duration="145.00" routeLength="1015.10" waitingTime="34.00" waitingCount="1" stopTime="0.00" timeLoss="61.46" rerouteNo="0" devices="tripinfo_down_9" vType="typeNS" speedFactor="0.86" vaporized=""/>
    <tripinfo id="down_12" depart="26.00" departLane="54o_0" departPos="5.10" departSpeed="0.00" departDelay="6.00" arrival="168.00" arrivalLane="53i_0" arrivalPos="10.00" arrivalSpeed="10.35" duration="142.00" routeLength="1015.10" waitingTime="32.00" waitingCount="1" stopTime="0.00" timeLoss="72.95" rerouteNo="0" devices="tripinfo_down_12" vType="typeNS" speedFactor="1.05" vaporized=""/>
    <tripinfo id="down_14" depart="31.00" departLane="54o_0" departPos="5.10" departSpeed="0.00" departDelay="10.00" arrival="170.00" arrivalLane="53i_0" arrivalPos="10.00" arrivalSpeed="10.86" duration="139.00" routeLength="1015.10" waitingTime="28.00" waitingCount="1" stopTime="0.00" timeLoss="66.19" rerouteNo="0" devices="tripinfo_down_14" vType="typeNS" speedFactor="0.99" vaporized=""/>
    <tripinfo id="down_20" depart="37.00" departLane="54o_0" departPos="5.10" departSpeed="0.00" departDelay="11.00" arrival="171.00" arrivalLane="53i_0" arrivalPos="10.00" arrivalSpeed="10.73" duration="134.00" routeLength="1015.10" waitingTime="26.00" waitingCount="1" stopTime="0.00" timeLoss="63.62" rerouteNo="0" devices="tripinfo_down_20" vType="typeNS" speedFactor="1.02" vaporized=""/>
    <tripinfo id="down_23" depart="42.00" departLane="54o_0" departPos="5.10" departSpeed="0.00" departDelay="13.00" arrival="173.00" arrivalLane="53i_0" arrivalPos="10.00" arrivalSpeed="10.34" duration="131.00" routeLength="1015.10" waitingTime="19.00" waitingCount="1" stopTime="0.00" timeLoss="50.81" rerouteNo="0" devices="tripinfo_down_23" vType="typeNS" speedFactor="0.89" vaporized=""/>
    <tripinfo id="down_24" depart="47.00" departLane="54o_0" departPos="5.10" departSpeed="0.00" departDelay="17.00" arrival="179.00" arrivalLane="53i_0" arrivalPos="10.00" arrivalSpeed="9.61" duration="132.00" routeLength="1015.10" waitingTime="16.00" waitingCount="1" stopTime="0.00" timeLoss="45.06" rerouteNo="0" devices="tripinfo_down_24" vType="typeNS" speedFactor="0.83" vaporized=""/>
    <tripinfo id="down_29" depart="52.00" departLane="54o_0" departPos="5.10" departSpeed="0.00" departDelay="19.00" arrival="181.00" arrivalLane="53i_0" arrivalPos="10.00" arrivalSpeed="10.44" duration="129.00" routeLength="1015.10" waitingTime="14.00" waitingCount="1" stopTime="0.00" timeLoss="51.80" rerouteNo="0" devices="tripinfo_down_29" vType="typeNS" speedFactor="0.93" vaporized=""/>
    <tripinfo id="down_32" depart="57.00" departLane="54o_0" departPos="5.10" departSpeed="0.00" departDelay="23.00" arrival="183.00" arrivalLane="53i_0" arrivalPos="10.00" arrivalSpeed="10.46" duration="126.00" routeLength="1015.10" waitingTime="9.00" waitingCount="1" stopTime="0.00" timeLoss="54.19" rerouteNo="0" devices="tripinfo_down_32" vType="typeNS" speedFactor="1.01" vaporized=""/>
    <tripinfo id="down_36" depart="63.00" departLane="54o_0" departPos="5.10" departSpeed="0.00" departDelay="26.00" arrival="184.00" arrivalLane="53i_0" arrivalPos="10.00" arrivalSpeed="10.55" duration="121.00" routeLength="1015.10" waitingTime="5.00" waitingCount="1" stopTime="0.00" timeLoss="47.42" rerouteNo="0" devices="tripinfo_down_36" vType="typeNS" speedFactor="0.97" vaporized=""/>
    <tripinfo id="down_38" depart="68.00" departLane="54o_0" departPos="5.10" departSpeed="0.00" departDelay="29.00" arrival="186.00" arrivalLane="53i_0" arrivalPos="10.00" arrivalSpeed="11.15" duration="118.00" routeLength="1015.10" waitingTime="0.00" waitingCount="0" stopTime="0.00" timeLoss="51.17" rerouteNo="0" devices="tripinfo_down_38" vType="typeNS" speedFactor="1.10" vaporized=""/>
    <tripinfo id="down_39" depart="73.00" departLane="54o_0" departPos="5.10" departSpeed="0.00" departDelay="33.00" arrival="188.00" arrivalLane="53i_0" arrivalPos="10.00" arrivalSpeed="10.65" duration="115.00" routeLength="1015.10" waitingTime="0.00" waitingCount="0" stopTime="0.00" timeLoss="35.19" rerouteNo="0" devices="tripinfo_down_39" vType="typeNS" speedFactor="0.90" vaporized=""/>
    <tripinfo id="down_43" depart="79.00" departLane="54o_0" departPos="5.10" departSpeed="0.00" departDelay="36.00" arrival="190.00" arrivalLane="53i_0" arrivalPos="10.00" arrivalSpeed="11.38" duration="111.00" routeLength="1015.10" waitingTime="0.00" waitingCount="0" stopTime="0.00" timeLoss="41.28" rerouteNo="0" devices="tripinfo_down_43" vType="typeNS" speedFactor="1.04" vaporized=""/>
    <tripinfo id="down_46" depart="84.00" departLane="54o_0" departPos="5.10" departSpeed="0.00" departDelay="37.00" arrival="192.00" arrivalLane="53i_0" arrivalPos="10.00" arrivalSpeed="11.52" duration="108.00" routeLength="1015.10" waitingTime="0.00" waitingCount="0" stopTime="0.00" timeLoss="35.56" rerouteNo="0" devices="tripinfo_down_46" vType="typeNS" speedFactor="1.00" vaporized=""/>
    <tripinfo id="down_47" depart="89.00" departLane="54o_0" departPos="5.10" departSpeed="0.00" departDelay="41.00" arrival="194.00" arrivalLane="53i_0" arrivalPos="10.00" arrivalSpeed="10.32" duration="105.00" routeLength="1015.10" waitingTime="0.00" waitingCount="0" stopTime="0.00" timeLoss="24.82" rerouteNo="0" devices="tripinfo_down_47" vType="typeNS" speedFactor="0.90" vaporized=""/>
    <tripinfo id="down_50" depart="94.00" departLane="54o_0" departPos="5.10" departSpeed="0.00" departDelay="35.00" arrival="196.00" arrivalLane="53i_0" arrivalPos="10.00" arrivalSpeed="10.01" duration="102.00" routeLength="1015.10" waitingTime="0.00" waitingCount="0" stopTime="0.00" timeLoss="17.69" rerouteNo="0" devices="tripinfo_down_50" vType="typeNS" speedFactor="0.85" vaporized=""/>
    <tripinfo id="down_51" depart="99.00" departLane="54o_0" departPos="5.10" departSpeed="0.00" departDelay="38.00" arrival="198.00" arrivalLane="53i_0" arrivalPos="10.00" arrivalSpeed="10.68" duration="99.00" routeLength="1015.10" waitingTime="0.00" waitingCount="0" stopTime="0.00" timeLoss="34.00" rerouteNo="0" devices="tripinfo_down_51" vType="typeNS" speedFactor="1.17" vaporized=""/>
    <tripinfo id="down_52" depart="104.00" departLane="54o_0" departPos="5.10" departSpeed="0.00" departDelay="41.00" arrival="199.00" arrivalLane="53i_0" arrivalPos="10.00" arrivalSpeed="10.96" duration="95.00" routeLength="1015.10" waitingTime="0.00" waitingCount="0" stopTime="0.00" timeLoss="24.65" rerouteNo="0" devices="tripinfo_down_52" vType="typeNS" speedFactor="1.02" vaporized=""/>
    <tripinfo id="down_54" depart="109.00" departLane="54o_0" departPos="5.10" departSpeed="0.00" departDelay="45.00" arrival="201.00" arrivalLane="53i_0" arrivalPos="10.00" arrivalSpeed="11.33" duration="92.00" routeLength="1015.10" waitingTime="0.00" waitingCount="0" stopTime="0.00" timeLoss="20.41" rerouteNo="0" devices="tripinfo_down_54" vType="typeNS" speedFactor="1.00" vaporized=""/>
    <tripinfo id="down_57" depart="114.00" departLane="54o_0" departPos="5.10" departSpeed="0.00" departDelay="46.00" arrival="203.00" arrivalLane="53i_0" arrivalPos="10.00" arrivalSpeed="11.60" duration="89.00" routeLength="1015.10" waitingTime="0.00" waitingCount="0" stopTime="0.00" timeLoss="23.55" rerouteNo="0" devices="tripinfo_down_57" vType="typeNS" speedFactor="1.14" vaporized=""/>
    <tripinfo id="down_63" depart="119.00" departLane="54o_0" departPos="5.10" departSpeed="0.00" departDelay="43.00" arrival="208.00" arrivalLane="53i_0" arrivalPos="10.00" arrivalSpeed="10.81" duration="89.00" routeLength="1015.10" waitingTime="0.00" waitingCount="0" stopTime="0.00" timeLoss="16.45" rerouteNo="0" devices="tripinfo_down_63" vType="typeNS" speedFactor="0.99" vaporized=""/>
    <tripinfo id="down_64" depart="124.00" departLane="54o_0" departPos="5.10" departSpeed="0.00" departDelay="47.00" arrival="217.00" arrivalLane="53i_0" arrivalPos="10.00" arrivalSpeed="10.83" duration="93.00" routeLength="1015.10" waitingTime="0.00" waitingCount="0" stopTime="0.00" timeLoss="16.36" rerouteNo="0" devices="tripinfo_down_64" vType="typeNS" speedFactor="0.94" vaporized=""/>
    <tripinfo id="down_68" depart="129.00" departLane="54o_0" departPos="5.10" departSpeed="0.00" departDelay="49.00" arrival="219.00" arrivalLane="53i_0" arrivalPos="10.00" arrivalSpeed="11.37" duration="90.00" routeLength="1015.10" waitingTime="0.00" waitingCount="0" stopTime="0.00" timeLoss="20.34" rerouteNo="0" devices="tripinfo_down_68" vType="typeNS" speedFactor="1.04" vaporized=""/>
    <tripinfo id="down_71" depart="134.00" departLane="54o_0" departPos="5.10" departSpeed="0.00" departDelay="52.00" arrival="225.00" arrivalLane="53i_0" arrivalPos="10.00" arrivalSpeed="10.99" duration="91.00" routeLength="1015.10" waitingTime="0.00" waitingCount="0" stopTime="0.00" timeLoss="16.89" rerouteNo="0" devices="tripinfo_down_71" vType="typeNS" speedFactor="0.97" vaporized=""/>
    <tripinfo id="down_73" depart="139.00" departLane="54o_0" departPos="5.10" departSpeed="0.00" departDelay="55.00" arrival="227.00" arrivalLane="53i_0" arrivalPos="10.00" arrivalSpeed="11.76" duration="88.00" routeLength="1015.10" waitingTime="0.00" waitingCount="0" stopTime="0.00" timeLoss="18.73" rerouteNo="0" devices="tripinfo_down_73" vType="typeNS" speedFactor="1.06" vaporized=""/>
    <tripinfo id="down_74" depart="144.00" departLane="54o_0" departPos="5.10" departSpeed="0.00" departDelay="59.00" arrival="236.00" arrivalLane="53i_0" arrivalPos="10.00" arrivalSpeed="10.99" duration="92.00" routeLength="1015.10" waitingTime="0.00" waitingCount="0" stopTime="0.00" timeLoss="17.00" rerouteNo="0" devices="tripinfo_down_74" vType="typeNS" speedFactor="0.96" vaporized=""/>
    <tripinfo id="right_35" depart="54.00" departLane="51o_0" departPos="5.10" departSpeed="0.00" departDelay="17.00" arrival="247.00" arrivalLane="52i_0" arrivalPos="10.00" arrivalSpeed="11.76" duration="193.00" routeLength="1015.10" waitingTime="91.00" waitingCount="1" stopTime="0.00" timeLoss="122.29" rerouteNo="0" devices="tripinfo_right_35" vType="typeWE" speedFactor="1.02" vaporized=""/>
    <tripinfo id="right_37" depart="59.00" departLane="51o_0" departPos="5.10" departSpeed="0.00" departDelay="20.00" arrival="248.00" arrivalLane="52i_0" arrivalPos="10.00" arrivalSpeed="11.98" duration="189.00" routeLength="1015.10" waitingTime="88.00" waitingCount="1" stopTime="0.00" timeLoss="125.11" rerouteNo="0" devices="tripinfo_right_37" vType="typeWE" speedFactor="1.18" vaporized=""/>
    <tripinfo id="left_26" depart="54.00" departLane="52o_0" departPos="5.10" departSpeed="0.00" departDelay="22.00" arrival="250.00" arrivalLane="51i_0" arrivalPos="10.00" arrivalSpeed="10.73" duration="196.00" routeLength="1015.10" waitingTime="91.00" waitingCount="1" stopTime="0.00" timeLoss="118.28" rerouteNo="0" devices="tripinfo_left_26" vType="typeWE" speedFactor="0.92" vaporized=""/>
    <tripinfo id="right_40" depart="64.00" departLane="51o_0" departPos="5.10" departSpeed="0.00" departDelay="23.00" arrival="251.00" arrivalLane="52i_0" arrivalPos="10.00" arrivalSpeed="11.67" duration="187.00" routeLength="1015.10" waitingTime="86.00" waitingCount="1" stopTime="0.00" timeLoss="117.29" rerouteNo="0" devices="tripinfo_right_40" vType="typeWE" speedFactor="1.03" vaporized=""/>
    <tripinfo id="left_28" depart="59.00" departLane="52o_0" departPos="5.10" departSpeed="0.00" departDelay="26.00" arrival="252.00" arrivalLane="51i_0" arrivalPos="10.00" arrivalSpeed="11.14" duration="193.00" routeLength="1015.10" waitingTime="90.00" waitingCount="2" stopTime="0.00" timeLoss="127.33" rerouteNo="0" devices="tripinfo_left_28" vType="typeWE" speedFactor="1.13" vaporized=""/>
    <tripinfo id="right_44" depart="69.00" departLane="51o_0" departPos="5.10" departSpeed="0.00" departDelay="22.00" arrival="253.00" arrivalLane="52i_0" arrivalPos="10.00" arrivalSpeed="11.93" duration="184.00" routeLength="1015.10" waitingTime="82.00" waitingCount="2" stopTime="0.00" timeLoss="114.51" rerouteNo="0" devices="tripinfo_right_44" vType="typeWE" speedFactor="1.04" vaporized=""/>
    <tripinfo id="left_31" depart="65.00" departLane="52o_0" departPos="5.10" departSpeed="0.00" departDelay="31.00" arrival="254.00" arrivalLane="51i_0" arrivalPos="10.00" arrivalSpeed="11.81" duration="189.00" routeLength="1015.10" waitingTime="85.00" waitingCount="1" stopTime="0.00" timeLoss="123.89" rerouteNo="0" devices="tripinfo_left_31" vType="typeWE" speedFactor="1.15" vaporized=""/>
    <tripinfo id="left_34" depart="70.00" departLane="52o_0" departPos="5.10" departSpeed="0.00" departDelay="35.00" arrival="256.00" arrivalLane="51i_0" arrivalPos="10.00" arrivalSpeed="11.54" duration="186.00" routeLength="1015.10" waitingTime="81.00" waitingCount="1" stopTime="0.00" timeLoss="113.50" rerouteNo="0" devices="tripinfo_left_34" vType="typeWE" speedFactor="0.99" vaporized=""/>
    <tripinfo id="left_41" depart="75.00" departLane="52o_0" departPos="5.10" departSpeed="0.00" departDelay="34.00" arrival="258.00" arrivalLane="51i_0" arrivalPos="10.00" arrivalSpeed="10.91" duration="183.00" routeLength="1015.10" waitingTime="77.00" waitingCount="1" stopTime="0.00" timeLoss="107.56" rerouteNo="0" devices="tripinfo_left_41" vType="typeWE" speedFactor="0.96" vaporized=""/>
    <tripinfo id="left_42" depart="80.00" departLane="52o_0" departPos="5.10" departSpeed="0.00" departDelay="37.00" arrival="259.00" arrivalLane="51i_0" arrivalPos="10.00" arrivalSpeed="10.79" duration="179.00" routeLength="1015.10" waitingTime="72.00" waitingCount="1" stopTime="0.00" timeLoss="112.08" rerouteNo="0" devices="tripinfo_left_42" vType="typeWE" speedFactor="1.09" vaporized=""/>
    <tripinfo id="left_45" depart="86.00" departLane="52o_0" departPos="5.10" departSpeed="0.00" departDelay="39.00" arrival="261.00" arrivalLane="51i_0" arrivalPos="10.00" arrivalSpeed="10.86" duration="175.00" routeLength="1015.10" waitingTime="69.00" waitingCount="1" stopTime="0.00" timeLoss="107.78" rerouteNo="0" devices="tripinfo_left_45" vType="typeWE" speedFactor="1.09" vaporized=""/>
    <tripinfo id="right_48" depart="75.00" departLane="51o_0" departPos="5.10" departSpeed="0.00" departDelay="24.00" arrival="261.00" arrivalLane="52i_0" arrivalPos="10.00" arrivalSpeed="10.06" duration="186.00" routeLength="1015.10" waitingTime="77.00" waitingCount="1" stopTime="0.00" timeLoss="104.49" rerouteNo="0" devices="tripinfo_right_48" vType="typeWE" speedFactor="0.88" vaporized=""/>
    <tripinfo id="left_53" depart="93.00" departLane="52o_0" departPos="5.10" departSpeed="0.00" departDelay="29.00" arrival="263.00" arrivalLane="51i_0" arrivalPos="10.00" arrivalSpeed="11.01" duration="170.00" routeLength="1015.10" waitingTime="65.00" waitingCount="1" stopTime="0.00" timeLoss="102.90" rerouteNo="0" devices="tripinfo_left_53" vType="typeWE" speedFactor="1.10" vaporized=""/>
    <tripinfo id="right_49" depart="80.00" departLane="51o_0" departPos="5.10" departSpeed="0.00" departDelay="21.00" arrival="265.00" arrivalLane="52i_0" arrivalPos="10.00" arrivalSpeed="10.20" duration="185.00" routeLength="1015.10" waitingTime="73.00" waitingCount="1" stopTime="0.00" timeLoss="100.50" rerouteNo="0" devices="tripinfo_right_49" vType="typeWE" speedFactor="0.85" vaporized=""/>
    <tripinfo id="left_55" depart="98.00" departLane="52o_0" departPos="5.10" departSpeed="0.00" departDelay="32.00" arrival="265.00" arrivalLane="51i_0" arrivalPos="10.00" arrivalSpeed="11.45" duration="167.00" routeLength="1015.10" waitingTime="61.00" waitingCount="1" stopTime="0.00" timeLoss="94.58" rerouteNo="0" devices="tripinfo_left_55" vType="typeWE" speedFactor="1.00" vaporized=""/>
    <tripinfo id="left_60" depart="103.00" departLane="52o_0" departPos="5.10" departSpeed="0.00" departDelay="29.00" arrival="266.00" arrivalLane="51i_0" arrivalPos="10.00" arrivalSpeed="11.16" duration="163.00" routeLength="1015.10" waitingTime="58.00" waitingCount="1" stopTime="0.00" timeLoss="95.36" rerouteNo="0" devices="tripinfo_left_60" vType="typeWE" speedFactor="1.08" vaporized=""/>
    <tripinfo id="right_56" depart="85.00" departLane="51o_0" departPos="5.10" departSpeed="0.00" departDelay="18.00" arrival="267.00" arrivalLane="52i_0" arrivalPos="10.00" arrivalSpeed="10.71" duration="182.00" routeLength="1015.10" waitingTime="70.00" waitingCount="1" stopTime="0.00" timeLoss="101.75" rerouteNo="0" devices="tripinfo_right_56" vType="typeWE" speedFactor="0.90" vaporized=""/>
    <tripinfo id="right_58" depart="90.00" departLane="51o_0" departPos="5.10" departSpeed="0.00" departDelay="21.00" arrival="268.00" arrivalLane="52i_0" arrivalPos="10.00" arrivalSpeed="10.58" duration="178.00" routeLength="1015.10" waitingTime="67.00" waitingCount="1" stopTime="0.00" timeLoss="107.85" rerouteNo="0" devices="tripinfo_right_58" vType="typeWE" speedFactor="1.02" vaporized=""/>
    <tripinfo id="left_62" depart="108.00" departLane="52o_0" departPos="5.10" departSpeed="0.00" departDelay="32.00" arrival="268.00" arrivalLane="51i_0" arrivalPos="10.00" arrivalSpeed="11.35" duration="160.00" routeLength="1015.10" waitingTime="54.00" waitingCount="1" stopTime="0.00" timeLoss="89.45" rerouteNo="0" devices="tripinfo_left_62" vType="typeWE" speedFactor="1.02" vaporized=""/>
    <tripinfo id="right_59" depart="95.00" departLane="51o_0" departPos="5.10" departSpeed="0.00" departDelay="25.00" arrival="270.00" arrivalLane="52i_0" arrivalPos="10.00" arrivalSpeed="11.37" duration="175.00" routeLength="1015.10" waitingTime="64.00" waitingCount="1" stopTime="0.00" timeLoss="101.05" rerouteNo="0" devices="tripinfo_right_59" vType="typeWE" speedFactor="0.97" vaporized=""/>
    <tripinfo id="right_61" depart="100.00" departLane="51o_0" departPos="5.10" departSpeed="0.00" departDelay="24.00" arrival="272.00" arrivalLane="52i_0" arrivalPos="10.00" arrivalSpeed="11.84" duration="172.00" routeLength="1015.10" waitingTime="60.00" waitingCount="1" stopTime="0.00" timeLoss="105.67" rerouteNo="0" devices="tripinfo_right_61" vType="typeWE" speedFactor="1.12" vaporized=""/>
    <tripinfo id="right_66" depart="107.00" departLane="51o_0" departPos="5.10" departSpeed="0.00" departDelay="28.00" arrival="274.00" arrivalLane="52i_0" arrivalPos="10.00" arrivalSpeed="10.25" duration="167.00" routeLength="1015.10" waitingTime="54.00" waitingCount="1" stopTime="0.00" timeLoss="87.74" rerouteNo="0" devices="tripinfo_right_66" vType="typeWE" speedFactor="0.91" vaporized=""/>
    <tripinfo id="left_65" depart="113.00" departLane="52o_0" departPos="5.10" departSpeed="0.00" departDelay="35.00" arrival="276.00" arrivalLane="51i_0" arrivalPos="10.00" arrivalSpeed="10.01" duration="163.00" routeLength="1015.10" waitingTime="50.00" waitingCount="1" stopTime="0.00" timeLoss="81.25" rerouteNo="0" devices="tripinfo_left_65" vType="typeWE" speedFactor="0.88" vaporized=""/>
    <tripinfo id="right_69" depart="112.00" departLane="51o_0" departPos="5.10" departSpeed="0.00" departDelay="31.00" arrival="276.00" arrivalLane="52i_0" arrivalPos="10.00" arrivalSpeed="11.21" duration="164.00" routeLength="1015.10" waitingTime="51.00" waitingCount="1" stopTime="0.00" timeLoss="93.50" rerouteNo="0" devices="tripinfo_right_69" vType="typeWE" speedFactor="1.02" vaporized=""/>
    <tripinfo id="left_67" depart="118.00" departLane="52o_0" departPos="5.10" departSpeed="0.00" departDelay="38.00" arrival="277.00" arrivalLane="51i_0" arrivalPos="10.00" arrivalSpeed="10.08" duration="159.00" routeLength="1015.10" waitingTime="46.00" waitingCount="1" stopTime="0.00" timeLoss="80.54" rerouteNo="0" devices="tripinfo_left_67" vType="typeWE" speedFactor="0.91" vaporized=""/>