<?xml version="1.0" encoding="UTF-8"?>

<!-- generated on 09/05/19 08:03:14 by Eclipse SUMO GUI Version 1.2.0
<configuration xmlns:xsi="http://www.w3.org/2001/XMLSchema-instance" xsi:noNamespaceSchemaLocation="http://sumo.dlr.de/xsd/sumoConfiguration.xsd">

    <input>
        <net-file value="data/cross.net.xml"/>
        <route-files value="data/cross.rou.xml"/>
        <additional-files value="data/cross.det.xml"/>
    </input>

    <output>
        <tripinfo-output value="tripinfo.xml"/>
    </output>

    <time>
        <begin value="0"/>
    </time>

    <report>
        <verbose value="true"/>
        <no-step-log value="true"/>
    </report>

    <traci_server>
        <remote-port value="60158"/>
    </traci_server>

</configuration>
-->

<tripinfos xmlns:xsi="http://www.w3.org/2001/XMLSchema-instance" xsi:noNamespaceSchemaLocation="http://sumo.dlr.de/xsd/tripinfo_file.xsd">
    <tripinfo id="right_0" depart="0.00" departLane="51o_0" departPos="5.10" departSpeed="0.00" departDelay="0.00" arrival="86.00" arrivalLane="52i_0" arrivalPos="10.00" arrivalSpeed="12.13" duration="86.00" routeLength="1015.10" waitingTime="0.00" waitingCount="0" stopTime="0.00" timeLoss="17.79" rerouteNo="0" devices="tripinfo_right_0" vType="typeWE" speedFactor="1.06" vaporized=""/>
    <tripinfo id="left_3" depart="4.00" departLane="52o_0" departPos="5.10" departSpeed="0.00" departDelay="0.00" arrival="89.00" arrivalLane="51i_0" arrivalPos="10.00" arrivalSpeed="12.47" duration="85.00" routeLength="1015.10" waitingTime="0.00" waitingCount="0" stopTime="0.00" timeLoss="17.77" rerouteNo="0" devices="tripinfo_left_3" vType="typeWE" speedFactor="1.08" vaporized=""/>
    <tripinfo id="right_4" depart="5.00" departLane="51o_0" departPos="5.10" departSpeed="0.00" departDelay="0.00" arrival="93.00" arrivalLane="52i_0" arrivalPos="10.00" arrivalSpeed="11.78" duration="88.00" routeLength="1015.10" waitingTime="0.00" waitingCount="0" stopTime="0.00" timeLoss="18.02" rerouteNo="0" devices="tripinfo_right_4" vType="typeWE" speedFactor="1.03" vaporized=""/>
    <tripinfo id="left_8" depart="13.00" departLane="52o_0" departPos="5.10" departSpeed="0.00" departDelay="0.00" arrival="106.00" arrivalLane="51i_0" arrivalPos="10.00" arrivalSpeed="10.89" duration="93.00" routeLength="1015.10" waitingTime="0.00" waitingCount="0" stopTime="0.00" timeLoss="15.95" rerouteNo="0" devices="tripinfo_left_8" vType="typeWE" speedFactor="0.94" vaporized=""/>
    <tripinfo id="left_10" depart="18.00" departLane="52o_0" departPos="5.10" departSpeed="0.00" departDelay="3.00" arrival="107.00" arrivalLane="51i_0" arrivalPos="10.00" arrivalSpeed="10.88" duration="89.00" routeLength="1015.10" waitingTime="0.00" waitingCount="0" stopTime="0.00" timeLoss="21.68" rerouteNo="0" devices="tripinfo_left_10" vType="typeWE" speedFactor="1.09" vaporized=""/>
    <tripinfo id="left_13" depart="23.00" departLane="52o_0" departPos="5.10" departSpeed="0.00" departDelay="2.00" arrival="109.00" arrivalLane="51i_0" arrivalPos="10.00" arrivalSpeed="11.59" duration="86.00" routeLength="1015.10" waitingTime="0.00" waitingCount="0" stopTime="0.00" timeLoss="20.07" rerouteNo="0" devices="tripinfo_left_13" vType="typeWE" speedFactor="1.12" vaporized=""/>
    <tripinfo id="right_5" depart="10.00" departLane="51o_0" departPos="5.10" departSpeed="0.00" departDelay="1.00" arrival="111.00" arrivalLane="52i_0" arrivalPos="10.00" arrivalSpeed="9.46" duration="101.00" routeLength="1015.10" waitingTime="0.00" waitingCount="0" stopTime="0.00" timeLoss="14.23" rerouteNo="0" devices="tripinfo_right_5" vType="typeWE" speedFactor="0.83" vaporized=""/>
    <tripinfo id="right_11" depart="18.00" departLane="51o_0" departPos="5.10" departSpeed="0.00" departDelay="0.00" arrival="112.00" arrivalLane="52i_0" arrivalPos="10.00" arrivalSpeed="9.98" duration="94.00" routeLength="1015.10" waitingTime="0.00" waitingCount="0" stopTime="0.00" timeLoss="24.31" rerouteNo="0" devices="tripinfo_right_11" vType="typeWE" speedFactor="1.03" vaporized=""/>
</tripinfos>
