<?xml version="1.0" encoding="UTF-8"?>

<!-- generated on 09/04/19 20:47:26 by Eclipse SUMO GUI Version 1.2.0
<configuration xmlns:xsi="http://www.w3.org/2001/XMLSchema-instance" xsi:noNamespaceSchemaLocation="http://sumo.dlr.de/xsd/sumoConfiguration.xsd">

    <input>
        <net-file value="data/cross.net.xml"/>
        <route-files value="data/cross.rou.xml"/>
        <additional-files value="data/cross.det.xml"/>
    </input>

    <output>
        <tripinfo-output value="tripinfo.xml"/>
    </output>

    <time>
        <begin value="0"/>
    </time>

    <report>
        <verbose value="true"/>
        <no-step-log value="true"/>
    </report>

    <traci_server>
        <remote-port value="50873"/>
    </traci_server>

</configuration>
-->

<detector xmlns:xsi="http://www.w3.org/2001/XMLSchema-instance" xsi:noNamespaceSchemaLocation="http://sumo.dlr.de/xsd/det_e1_file.xsd">
    <interval begin="0.00" end="30.00" id="0" nVehContrib="0" flow="0.00" occupancy="0.00" speed="-1.00" harmonicMeanSpeed="-1.00" length="-1.00" nVehEntered="0"/>
    <interval begin="30.00" end="60.00" id="0" nVehContrib="4" flow="480.00" occupancy="4.16" speed="16.12" harmonicMeanSpeed="16.01" length="5.00" nVehEntered="4"/>
    <interval begin="60.00" end="90.00" id="0" nVehContrib="2" flow="240.00" occupancy="4.71" speed="7.70" harmonicMeanSpeed="7.08" length="5.00" nVehEntered="2"/>
    <interval begin="90.00" end="120.00" id="0" nVehContrib="5" flow="600.00" occupancy="23.14" speed="4.39" harmonicMeanSpeed="3.60" length="5.00" nVehEntered="5"/>
    <interval begin="120.00" end="150.00" id="0" nVehContrib="11" flow="1320.00" occupancy="18.16" speed="11.50" harmonicMeanSpeed="10.09" length="5.00" nVehEntered="11"/>
    <interval begin="150.00" end="180.00" id="0" nVehContrib="6" flow="720.00" occupancy="5.22" speed="19.18" harmonicMeanSpeed="19.15" length="5.00" nVehEntered="6"/>
    <interval begin="180.00" end="210.00" id="0" nVehContrib="5" flow="600.00" occupancy="5.03" speed="16.81" harmonicMeanSpeed="16.58" length="5.00" nVehEntered="5"/>
    <interval begin="210.00" end="240.00" id="0" nVehContrib="2" flow="240.00" occupancy="4.88" speed="7.39" harmonicMeanSpeed="6.84" length="5.00" nVehEntered="2"/>
    <interval begin="240.00" end="270.00" id="0" nVehContrib="0" flow="0.00" occupancy="0.00" speed="-1.00" harmonicMeanSpeed="-1.00" length="-1.00" nVehEntered="0"/>
    <interval begin="270.00" end="300.00" id="0" nVehContrib="0" flow="0.00" occupancy="11.60" speed="-1.00" harmonicMeanSpeed="-1.00" length="-1.00" nVehEntered="1"/>
    <interval begin="300.00" end="330.00" id="0" nVehContrib="13" flow="1560.00" occupancy="31.62" speed="6.64" harmonicMeanSpeed="5.01" length="5.00" nVehEntered="12"/>
    <interval begin="330.00" end="360.00" id="0" nVehContrib="15" flow="1800.00" occupancy="22.66" speed="11.33" harmonicMeanSpeed="11.03" length="5.00" nVehEntered="15"/>
    <interval begin="360.00" end="390.00" id="0" nVehContrib="6" flow="720.00" occupancy="5.56" speed="18.07" harmonicMeanSpeed="17.99" length="5.00" nVehEntered="6"/>
    <interval begin="390.00" end="420.00" id="0" nVehContrib="3" flow="360.00" occupancy="6.07" speed="9.16" harmonicMeanSpeed="8.23" length="5.00" nVehEntered="3"/>
    <interval begin="420.00" end="450.00" id="0" nVehContrib="0" flow="0.00" occupancy="0.00" speed="-1.00" harmonicMeanSpeed="-1.00" length="-1.00" nVehEntered="0"/>
    <interval begin="450.00" end="480.00" id="0" nVehContrib="0" flow="0.00" occupancy="0.00" speed="-1.00" harmonicMeanSpeed="-1.00" length="-1.00" nVehEntered="0"/>
    <interval begin="480.00" end="510.00" id="0" nVehContrib="7" flow="840.00" occupancy="29.46" speed="5.08" harmonicMeanSpeed="4.16" length="5.00" nVehEntered="8"/>
    <interval begin="510.00" end="540.00" id="0" nVehContrib="16" flow="1920.00" occupancy="24.79" speed="10.33" harmonicMeanSpeed="10.18" length="5.00" nVehEntered="15"/>
    <interval begin="540.00" end="558.00" id="0" nVehContrib="6" flow="1200.00" occupancy="14.21" speed="12.29" harmonicMeanSpeed="11.73" length="5.00" nVehEntered="6"/>
</detector>
