<?xml version="1.0" encoding="UTF-8"?>

<!-- generated on 09/05/19 08:03:14 by Eclipse SUMO GUI Version 1.2.0
<configuration xmlns:xsi="http://www.w3.org/2001/XMLSchema-instance" xsi:noNamespaceSchemaLocation="http://sumo.dlr.de/xsd/sumoConfiguration.xsd">

    <input>
        <net-file value="data/cross.net.xml"/>
        <route-files value="data/cross.rou.xml"/>
        <additional-files value="data/cross.det.xml"/>
    </input>

    <output>
        <tripinfo-output value="tripinfo.xml"/>
    </output>

    <time>
        <begin value="0"/>
    </time>

    <report>
        <verbose value="true"/>
        <no-step-log value="true"/>
    </report>

    <traci_server>
        <remote-port value="60158"/>
    </traci_server>

</configuration>
-->

<detector xmlns:xsi="http://www.w3.org/2001/XMLSchema-instance" xsi:noNamespaceSchemaLocation="http://sumo.dlr.de/xsd/det_e1_file.xsd">
    <interval begin="0.00" end="30.00" id="0" nVehContrib="0" flow="0.00" occupancy="0.00" speed="-1.00" harmonicMeanSpeed="-1.00" length="-1.00" nVehEntered="0"/>
    <interval begin="30.00" end="60.00" id="0" nVehContrib="4" flow="480.00" occupancy="4.16" speed="16.12" harmonicMeanSpeed="16.01" length="5.00" nVehEntered="4"/>
    <interval begin="60.00" end="90.00" id="0" nVehContrib="2" flow="240.00" occupancy="4.71" speed="7.70" harmonicMeanSpeed="7.08" length="5.00" nVehEntered="2"/>
    <interval begin="90.00" end="115.00" id="0" nVehContrib="3" flow="432.00" occupancy="20.89" speed="3.43" harmonicMeanSpeed="2.87" length="5.00" nVehEntered="3"/>
</detector>
