<?xml version="1.0" encoding="UTF-8"?>

<!-- generated on 09/05/19 12:04:49 by Eclipse SUMO GUI Version 1.2.0
<configuration xmlns:xsi="http://www.w3.org/2001/XMLSchema-instance" xsi:noNamespaceSchemaLocation="http://sumo.dlr.de/xsd/sumoConfiguration.xsd">

    <input>
        <net-file value="data/cross.net.xml"/>
        <route-files value="data/cross.rou.xml"/>
        <additional-files value="data/cross.det.xml"/>
    </input>

    <output>
        <tripinfo-output value="tripinfo.xml"/>
    </output>

    <time>
        <begin value="0"/>
    </time>

    <report>
        <verbose value="true"/>
        <no-step-log value="true"/>
    </report>

    <traci_server>
        <remote-port value="62062"/>
    </traci_server>

</configuration>
-->

<detector xmlns:xsi="http://www.w3.org/2001/XMLSchema-instance" xsi:noNamespaceSchemaLocation="http://sumo.dlr.de/xsd/det_e1_file.xsd">
    <interval begin="0.00" end="30.00" id="0" nVehContrib="0" flow="0.00" occupancy="0.00" speed="-1.00" harmonicMeanSpeed="-1.00" length="-1.00" nVehEntered="0"/>
    <interval begin="30.00" end="60.00" id="0" nVehContrib="4" flow="480.00" occupancy="4.16" speed="16.12" harmonicMeanSpeed="16.01" length="5.00" nVehEntered="4"/>
    <interval begin="60.00" end="90.00" id="0" nVehContrib="2" flow="240.00" occupancy="4.71" speed="7.70" harmonicMeanSpeed="7.08" length="5.00" nVehEntered="2"/>
    <interval begin="90.00" end="120.00" id="0" nVehContrib="5" flow="600.00" occupancy="23.14" speed="4.39" harmonicMeanSpeed="3.60" length="5.00" nVehEntered="5"/>
    <interval begin="120.00" end="150.00" id="0" nVehContrib="11" flow="1320.00" occupancy="18.16" speed="11.50" harmonicMeanSpeed="10.09" length="5.00" nVehEntered="11"/>
    <interval begin="150.00" end="180.00" id="0" nVehContrib="6" flow="720.00" occupancy="5.22" speed="19.18" harmonicMeanSpeed="19.15" length="5.00" nVehEntered="6"/>
    <interval begin="180.00" end="210.00" id="0" nVehContrib="5" flow="600.00" occupancy="5.03" speed="16.81" harmonicMeanSpeed="16.58" length="5.00" nVehEntered="5"/>
    <interval begin="210.00" end="240.00" id="0" nVehContrib="2" flow="240.00" occupancy="4.88" speed="7.39" harmonicMeanSpeed="6.84" length="5.00" nVehEntered="2"/>
    <interval begin="240.00" end="270.00" id="0" nVehContrib="0" flow="0.00" occupancy="0.00" speed="-1.00" harmonicMeanSpeed="-1.00" length="-1.00" nVehEntered="0"/>
    <interval begin="270.00" end="300.00" id="0" nVehContrib="0" flow="0.00" occupancy="11.60" speed="-1.00" harmonicMeanSpeed="-1.00" length="-1.00" nVehEntered="1"/>
    <interval begin="300.00" end="330.00" id="0" nVehContrib="13" flow="1560.00" occupancy="31.62" speed="6.64" harmonicMeanSpeed="5.01" length="5.00" nVehEntered="12"/>
    <interval begin="330.00" end="360.00" id="0" nVehContrib="15" flow="1800.00" occupancy="22.66" speed="11.33" harmonicMeanSpeed="11.03" length="5.00" nVehEntered="15"/>
    <interval begin="360.00" end="390.00" id="0" nVehContrib="6" flow="720.00" occupancy="5.56" speed="18.07" harmonicMeanSpeed="17.99" length="5.00" nVehEntered="6"/>
    <interval begin="390.00" end="420.00" id="0" nVehContrib="3" flow="360.00" occupancy="6.07" speed="9.16" harmonicMeanSpeed="8.23" length="5.00" nVehEntered="3"/>
    <interval begin="420.00" end="450.00" id="0" nVehContrib="0" flow="0.00" occupancy="0.00" speed="-1.00" harmonicMeanSpeed="-1.00" length="-1.00" nVehEntered="0"/>
    <interval begin="450.00" end="480.00" id="0" nVehContrib="0" flow="0.00" occupancy="0.00" speed="-1.00" harmonicMeanSpeed="-1.00" length="-1.00" nVehEntered="0"/>
    <interval begin="480.00" end="510.00" id="0" nVehContrib="7" flow="840.00" occupancy="29.46" speed="5.08" harmonicMeanSpeed="4.16" length="5.00" nVehEntered="8"/>
    <interval begin="510.00" end="540.00" id="0" nVehContrib="16" flow="1920.00" occupancy="24.79" speed="10.33" harmonicMeanSpeed="10.18" length="5.00" nVehEntered="15"/>
    <interval begin="540.00" end="570.00" id="0" nVehContrib="9" flow="1080.00" occupancy="11.04" speed="14.83" harmonicMeanSpeed="13.59" length="5.00" nVehEntered="9"/>
    <interval begin="570.00" end="600.00" id="0" nVehContrib="5" flow="600.00" occupancy="5.74" speed="15.41" harmonicMeanSpeed="14.51" length="5.00" nVehEntered="5"/>
    <interval begin="600.00" end="630.00" id="0" nVehContrib="1" flow="120.00" occupancy="3.02" speed="5.51" harmonicMeanSpeed="5.51" length="5.00" nVehEntered="1"/>
    <interval begin="630.00" end="660.00" id="0" nVehContrib="0" flow="0.00" occupancy="0.00" speed="-1.00" harmonicMeanSpeed="-1.00" length="-1.00" nVehEntered="0"/>
    <interval begin="660.00" end="690.00" id="0" nVehContrib="2" flow="240.00" occupancy="15.88" speed="2.64" harmonicMeanSpeed="2.33" length="5.00" nVehEntered="3"/>
    <interval begin="690.00" end="720.00" id="0" nVehContrib="14" flow="1680.00" occupancy="29.73" speed="8.03" harmonicMeanSpeed="7.46" length="5.00" nVehEntered="13"/>
    <interval begin="720.00" end="750.00" id="0" nVehContrib="13" flow="1560.00" occupancy="22.00" speed="10.21" harmonicMeanSpeed="9.85" length="5.00" nVehEntered="13"/>
    <interval begin="750.00" end="780.00" id="0" nVehContrib="6" flow="720.00" occupancy="5.60" speed="17.91" harmonicMeanSpeed="17.84" length="5.00" nVehEntered="6"/>
    <interval begin="780.00" end="810.00" id="0" nVehContrib="3" flow="360.00" occupancy="6.17" speed="9.19" harmonicMeanSpeed="8.10" length="5.00" nVehEntered="3"/>
    <interval begin="810.00" end="840.00" id="0" nVehContrib="0" flow="0.00" occupancy="0.00" speed="-1.00" harmonicMeanSpeed="-1.00" length="-1.00" nVehEntered="0"/>
    <interval begin="840.00" end="870.00" id="0" nVehContrib="0" flow="0.00" occupancy="0.00" speed="-1.00" harmonicMeanSpeed="-1.00" length="-1.00" nVehEntered="0"/>
    <interval begin="870.00" end="900.00" id="0" nVehContrib="10" flow="1200.00" occupancy="36.06" speed="5.85" harmonicMeanSpeed="4.62" length="5.00" nVehEntered="10"/>
    <interval begin="900.00" end="930.00" id="0" nVehContrib="16" flow="1920.00" occupancy="27.66" speed="9.67" harmonicMeanSpeed="9.64" length="5.00" nVehEntered="16"/>
    <interval begin="930.00" end="960.00" id="0" nVehContrib="6" flow="720.00" occupancy="7.10" speed="15.17" harmonicMeanSpeed="14.09" length="5.00" nVehEntered="6"/>
    <interval begin="960.00" end="990.00" id="0" nVehContrib="5" flow="600.00" occupancy="8.45" speed="11.35" harmonicMeanSpeed="9.86" length="5.00" nVehEntered="5"/>
    <interval begin="990.00" end="1020.00" id="0" nVehContrib="0" flow="0.00" occupancy="0.00" speed="-1.00" harmonicMeanSpeed="-1.00" length="-1.00" nVehEntered="0"/>
    <interval begin="1020.00" end="1050.00" id="0" nVehContrib="0" flow="0.00" occupancy="0.00" speed="-1.00" harmonicMeanSpeed="-1.00" length="-1.00" nVehEntered="0"/>
    <interval begin="1050.00" end="1080.00" id="0" nVehContrib="5" flow="600.00" occupancy="22.94" speed="4.28" harmonicMeanSpeed="3.63" length="5.00" nVehEntered="5"/>
    <interval begin="1080.00" end="1110.00" id="0" nVehContrib="14" flow="1680.00" occupancy="25.16" speed="10.02" harmonicMeanSpeed="9.73" length="5.00" nVehEntered="15"/>
    <interval begin="1110.00" end="1140.00" id="0" nVehContrib="12" flow="1440.00" occupancy="14.91" speed="12.83" harmonicMeanSpeed="12.44" length="5.00" nVehEntered="11"/>
    <interval begin="1140.00" end="1170.00" id="0" nVehContrib="6" flow="720.00" occupancy="6.76" speed="15.78" harmonicMeanSpeed="14.79" length="5.00" nVehEntered="6"/>
    <interval begin="1170.00" end="1200.00" id="0" nVehContrib="1" flow="120.00" occupancy="3.29" speed="5.06" harmonicMeanSpeed="5.06" length="5.00" nVehEntered="1"/>
    <interval begin="1200.00" end="1230.00" id="0" nVehContrib="0" flow="0.00" occupancy="0.00" speed="-1.00" harmonicMeanSpeed="-1.00" length="-1.00" nVehEntered="0"/>
    <interval begin="1230.00" end="1260.00" id="0" nVehContrib="1" flow="120.00" occupancy="10.05" speed="1.66" harmonicMeanSpeed="1.66" length="5.00" nVehEntered="1"/>
    <interval begin="1260.00" end="1290.00" id="0" nVehContrib="12" flow="1440.00" occupancy="30.32" speed="7.29" harmonicMeanSpeed="6.67" length="5.00" nVehEntered="13"/>
    <interval begin="1290.00" end="1320.00" id="0" nVehContrib="16" flow="1920.00" occupancy="22.98" speed="11.56" harmonicMeanSpeed="11.44" length="5.00" nVehEntered="15"/>
    <interval begin="1320.00" end="1350.00" id="0" nVehContrib="6" flow="720.00" occupancy="5.54" speed="18.17" harmonicMeanSpeed="18.04" length="5.00" nVehEntered="6"/>
    <interval begin="1350.00" end="1380.00" id="0" nVehContrib="3" flow="360.00" occupancy="6.19" speed="9.06" harmonicMeanSpeed="8.08" length="5.00" nVehEntered="3"/>
    <interval begin="1380.00" end="1410.00" id="0" nVehContrib="0" flow="0.00" occupancy="0.00" speed="-1.00" harmonicMeanSpeed="-1.00" length="-1.00" nVehEntered="0"/>
    <interval begin="1410.00" end="1440.00" id="0" nVehContrib="0" flow="0.00" occupancy="0.00" speed="-1.00" harmonicMeanSpeed="-1.00" length="-1.00" nVehEntered="0"/>
    <interval begin="1440.00" end="1470.00" id="0" nVehContrib="8" flow="960.00" occupancy="32.61" speed="5.16" harmonicMeanSpeed="4.09" length="5.00" nVehEntered="8"/>
    <interval begin="1470.00" end="1500.00" id="0" nVehContrib="15" flow="1800.00" occupancy="23.93" speed="10.89" harmonicMeanSpeed="10.70" length="5.00" nVehEntered="16"/>
    <interval begin="1500.00" end="1530.00" id="0" nVehContrib="9" flow="1080.00" occupancy="10.65" speed="14.12" harmonicMeanSpeed="13.39" length="5.00" nVehEntered="8"/>
    <interval begin="1530.00" end="1560.00" id="0" nVehContrib="5" flow="600.00" occupancy="7.50" speed="14.29" harmonicMeanSpeed="13.70" length="5.00" nVehEntered="6"/>
    <interval begin="1560.00" end="1590.00" id="0" nVehContrib="1" flow="120.00" occupancy="1.66" speed="5.42" harmonicMeanSpeed="5.42" length="5.00" nVehEntered="0"/>
    <interval begin="1590.00" end="1620.00" id="0" nVehContrib="0" flow="0.00" occupancy="0.00" speed="-1.00" harmonicMeanSpeed="-1.00" length="-1.00" nVehEntered="0"/>
    <interval begin="1620.00" end="1650.00" id="0" nVehContrib="2" flow="240.00" occupancy="18.38" speed="2.54" harmonicMeanSpeed="2.22" length="5.00" nVehEntered="3"/>
    <interval begin="1650.00" end="1680.00" id="0" nVehContrib="15" flow="1800.00" occupancy="28.57" speed="8.51" harmonicMeanSpeed="7.83" length="5.00" nVehEntered="14"/>
    <interval begin="1680.00" end="1710.00" id="0" nVehContrib="12" flow="1440.00" occupancy="16.92" speed="12.23" harmonicMeanSpeed="11.82" length="5.00" nVehEntered="12"/>
    <interval begin="1710.00" end="1740.00" id="0" nVehContrib="6" flow="720.00" occupancy="6.38" speed="15.86" harmonicMeanSpeed="15.68" length="5.00" nVehEntered="6"/>
    <interval begin="1740.00" end="1770.00" id="0" nVehContrib="2" flow="240.00" occupancy="4.58" speed="7.97" harmonicMeanSpeed="7.27" length="5.00" nVehEntered="2"/>
    <interval begin="1770.00" end="1800.00" id="0" nVehContrib="0" flow="0.00" occupancy="0.00" speed="-1.00" harmonicMeanSpeed="-1.00" length="-1.00" nVehEntered="0"/>
    <interval begin="1800.00" end="1830.00" id="0" nVehContrib="0" flow="0.00" occupancy="0.00" speed="-1.00" harmonicMeanSpeed="-1.00" length="-1.00" nVehEntered="0"/>
    <interval begin="1830.00" end="1860.00" id="0" nVehContrib="10" flow="1200.00" occupancy="35.31" speed="6.13" harmonicMeanSpeed="4.72" length="5.00" nVehEntered="10"/>
    <interval begin="1860.00" end="1890.00" id="0" nVehContrib="16" flow="1920.00" occupancy="23.69" speed="11.32" harmonicMeanSpeed="11.25" length="5.00" nVehEntered="16"/>
    <interval begin="1890.00" end="1920.00" id="0" nVehContrib="7" flow="840.00" occupancy="8.52" speed="15.17" harmonicMeanSpeed="13.69" length="5.00" nVehEntered="7"/>
    <interval begin="1920.00" end="1950.00" id="0" nVehContrib="5" flow="600.00" occupancy="8.06" speed="11.93" harmonicMeanSpeed="10.34" length="5.00" nVehEntered="5"/>
    <interval begin="1950.00" end="1980.00" id="0" nVehContrib="0" flow="0.00" occupancy="0.00" speed="-1.00" harmonicMeanSpeed="-1.00" length="-1.00" nVehEntered="0"/>
    <interval begin="1980.00" end="2010.00" id="0" nVehContrib="0" flow="0.00" occupancy="0.00" speed="-1.00" harmonicMeanSpeed="-1.00" length="-1.00" nVehEntered="0"/>
    <interval begin="2010.00" end="2040.00" id="0" nVehContrib="5" flow="600.00" occupancy="26.07" speed="4.06" harmonicMeanSpeed="3.20" length="5.00" nVehEntered="5"/>
    <interval begin="2040.00" end="2070.00" id="0" nVehContrib="14" flow="1680.00" occupancy="26.37" speed="9.45" harmonicMeanSpeed="9.24" length="5.00" nVehEntered="15"/>
    <interval begin="2070.00" end="2100.00" id="0" nVehContrib="12" flow="1440.00" occupancy="16.20" speed="12.44" harmonicMeanSpeed="11.55" length="5.00" nVehEntered="11"/>
    <interval begin="2100.00" end="2130.00" id="0" nVehContrib="5" flow="600.00" occupancy="5.53" speed="15.62" harmonicMeanSpeed="15.08" length="5.00" nVehEntered="5"/>
    <interval begin="2130.00" end="2160.00" id="0" nVehContrib="2" flow="240.00" occupancy="4.86" speed="7.69" harmonicMeanSpeed="6.86" length="5.00" nVehEntered="2"/>
    <interval begin="2160.00" end="2190.00" id="0" nVehContrib="0" flow="0.00" occupancy="0.00" speed="-1.00" harmonicMeanSpeed="-1.00" length="-1.00" nVehEntered="0"/>
    <interval begin="2190.00" end="2220.00" id="0" nVehContrib="1" flow="120.00" occupancy="11.14" speed="1.50" harmonicMeanSpeed="1.50" length="5.00" nVehEntered="1"/>
    <interval begin="2220.00" end="2250.00" id="0" nVehContrib="11" flow="1320.00" occupancy="30.84" speed="6.93" harmonicMeanSpeed="6.22" length="5.00" nVehEntered="12"/>
    <interval begin="2250.00" end="2280.00" id="0" nVehContrib="15" flow="1800.00" occupancy="20.99" speed="11.28" harmonicMeanSpeed="11.19" length="5.00" nVehEntered="14"/>
    <interval begin="2280.00" end="2310.00" id="0" nVehContrib="6" flow="720.00" occupancy="5.36" speed="18.70" harmonicMeanSpeed="18.67" length="5.00" nVehEntered="6"/>
    <interval begin="2310.00" end="2340.00" id="0" nVehContrib="4" flow="480.00" occupancy="7.40" speed="10.91" harmonicMeanSpeed="9.01" length="5.00" nVehEntered="4"/>
    <interval begin="2340.00" end="2370.00" id="0" nVehContrib="0" flow="0.00" occupancy="0.00" speed="-1.00" harmonicMeanSpeed="-1.00" length="-1.00" nVehEntered="0"/>
    <interval begin="2370.00" end="2400.00" id="0" nVehContrib="0" flow="0.00" occupancy="0.00" speed="-1.00" harmonicMeanSpeed="-1.00" length="-1.00" nVehEntered="0"/>
    <interval begin="2400.00" end="2430.00" id="0" nVehContrib="8" flow="960.00" occupancy="31.51" speed="5.38" harmonicMeanSpeed="4.23" length="5.00" nVehEntered="8"/>
    <interval begin="2430.00" end="2460.00" id="0" nVehContrib="15" flow="1800.00" occupancy="22.62" speed="11.32" harmonicMeanSpeed="11.05" length="5.00" nVehEntered="15"/>
    <interval begin="2460.00" end="2490.00" id="0" nVehContrib="8" flow="960.00" occupancy="8.91" speed="15.44" harmonicMeanSpeed="14.97" length="5.00" nVehEntered="8"/>
    <interval begin="2490.00" end="2520.00" id="0" nVehContrib="6" flow="720.00" occupancy="8.73" speed="13.31" harmonicMeanSpeed="11.46" length="5.00" nVehEntered="6"/>
    <interval begin="2520.00" end="2550.00" id="0" nVehContrib="0" flow="0.00" occupancy="0.00" speed="-1.00" harmonicMeanSpeed="-1.00" length="-1.00" nVehEntered="0"/>
    <interval begin="2550.00" end="2580.00" id="0" nVehContrib="0" flow="0.00" occupancy="0.00" speed="-1.00" harmonicMeanSpeed="-1.00" length="-1.00" nVehEntered="0"/>
    <interval begin="2580.00" end="2610.00" id="0" nVehContrib="2" flow="240.00" occupancy="18.60" speed="2.54" harmonicMeanSpeed="2.14" length="5.00" nVehEntered="3"/>
    <interval begin="2610.00" end="2640.00" id="0" nVehContrib="14" flow="1680.00" occupancy="27.39" speed="8.38" harmonicMeanSpeed="7.68" length="5.00" nVehEntered="13"/>
    <interval begin="2640.00" end="2670.00" id="0" nVehContrib="14" flow="1680.00" occupancy="18.59" speed="12.74" harmonicMeanSpeed="12.55" length="5.00" nVehEntered="14"/>
    <interval begin="2670.00" end="2700.00" id="0" nVehContrib="6" flow="720.00" occupancy="6.07" speed="16.71" harmonicMeanSpeed="16.48" length="5.00" nVehEntered="6"/>
    <interval begin="2700.00" end="2730.00" id="0" nVehContrib="2" flow="240.00" occupancy="4.82" speed="7.44" harmonicMeanSpeed="6.91" length="5.00" nVehEntered="2"/>
    <interval begin="2730.00" end="2760.00" id="0" nVehContrib="0" flow="0.00" occupancy="0.00" speed="-1.00" harmonicMeanSpeed="-1.00" length="-1.00" nVehEntered="0"/>
    <interval begin="2760.00" end="2790.00" id="0" nVehContrib="0" flow="0.00" occupancy="0.00" speed="-1.00" harmonicMeanSpeed="-1.00" length="-1.00" nVehEntered="0"/>
    <interval begin="2790.00" end="2820.00" id="0" nVehContrib="10" flow="1200.00" occupancy="36.45" speed="5.95" harmonicMeanSpeed="4.57" length="5.00" nVehEntered="10"/>
    <interval begin="2820.00" end="2850.00" id="0" nVehContrib="16" flow="1920.00" occupancy="24.87" speed="10.81" harmonicMeanSpeed="10.72" length="5.00" nVehEntered="16"/>
    <interval begin="2850.00" end="2880.00" id="0" nVehContrib="7" flow="840.00" occupancy="7.63" speed="16.08" harmonicMeanSpeed="15.28" length="5.00" nVehEntered="7"/>
    <interval begin="2880.00" end="2910.00" id="0" nVehContrib="4" flow="480.00" occupancy="7.24" speed="11.07" harmonicMeanSpeed="9.21" length="5.00" nVehEntered="4"/>
    <interval begin="2910.00" end="2940.00" id="0" nVehContrib="0" flow="0.00" occupancy="0.00" speed="-1.00" harmonicMeanSpeed="-1.00" length="-1.00" nVehEntered="0"/>
    <interval begin="2940.00" end="2970.00" id="0" nVehContrib="0" flow="0.00" occupancy="0.00" speed="-1.00" harmonicMeanSpeed="-1.00" length="-1.00" nVehEntered="0"/>
    <interval begin="2970.00" end="3000.00" id="0" nVehContrib="5" flow="600.00" occupancy="26.68" speed="4.06" harmonicMeanSpeed="3.12" length="5.00" nVehEntered="5"/>
    <interval begin="3000.00" end="3030.00" id="0" nVehContrib="14" flow="1680.00" occupancy="25.83" speed="9.49" harmonicMeanSpeed="9.25" length="5.00" nVehEntered="15"/>
    <interval begin="3030.00" end="3060.00" id="0" nVehContrib="11" flow="1320.00" occupancy="17.19" speed="10.68" harmonicMeanSpeed="10.30" length="5.00" nVehEntered="10"/>
    <interval begin="3060.00" end="3090.00" id="0" nVehContrib="7" flow="840.00" occupancy="7.49" speed="16.19" harmonicMeanSpeed="15.58" length="5.00" nVehEntered="7"/>
    <interval begin="3090.00" end="3120.00" id="0" nVehContrib="1" flow="120.00" occupancy="3.14" speed="5.30" harmonicMeanSpeed="5.30" length="5.00" nVehEntered="1"/>
    <interval begin="3120.00" end="3150.00" id="0" nVehContrib="0" flow="0.00" occupancy="0.00" speed="-1.00" harmonicMeanSpeed="-1.00" length="-1.00" nVehEntered="0"/>
    <interval begin="3150.00" end="3180.00" id="0" nVehContrib="1" flow="120.00" occupancy="10.29" speed="1.62" harmonicMeanSpeed="1.62" length="5.00" nVehEntered="1"/>
    <interval begin="3180.00" end="3210.00" id="0" nVehContrib="12" flow="1440.00" occupancy="29.45" speed="7.44" harmonicMeanSpeed="6.79" length="5.00" nVehEntered="12"/>
    <interval begin="3210.00" end="3240.00" id="0" nVehContrib="15" flow="1800.00" occupancy="21.41" speed="11.78" harmonicMeanSpeed="11.67" length="5.00" nVehEntered="15"/>
    <interval begin="3240.00" end="3270.00" id="0" nVehContrib="6" flow="720.00" occupancy="5.82" speed="17.24" harmonicMeanSpeed="17.19" length="5.00" nVehEntered="6"/>
    <interval begin="3270.00" end="3300.00" id="0" nVehContrib="3" flow="360.00" occupancy="5.83" speed="9.69" harmonicMeanSpeed="8.58" length="5.00" nVehEntered="3"/>
    <interval begin="3300.00" end="3330.00" id="0" nVehContrib="0" flow="0.00" occupancy="0.00" speed="-1.00" harmonicMeanSpeed="-1.00" length="-1.00" nVehEntered="0"/>
    <interval begin="3330.00" end="3360.00" id="0" nVehContrib="0" flow="0.00" occupancy="0.00" speed="-1.00" harmonicMeanSpeed="-1.00" length="-1.00" nVehEntered="0"/>
    <interval begin="3360.00" end="3390.00" id="0" nVehContrib="7" flow="840.00" occupancy="30.97" speed="4.75" harmonicMeanSpeed="3.83" length="5.00" nVehEntered="8"/>
    <interval begin="3390.00" end="3420.00" id="0" nVehContrib="15" flow="1800.00" occupancy="23.56" speed="10.66" harmonicMeanSpeed="10.37" length="5.00" nVehEntered="14"/>
    <interval begin="3420.00" end="3450.00" id="0" nVehContrib="10" flow="1200.00" occupancy="11.27" speed="15.19" harmonicMeanSpeed="14.79" length="5.00" nVehEntered="10"/>
    <interval begin="3450.00" end="3480.00" id="0" nVehContrib="5" flow="600.00" occupancy="8.31" speed="11.85" harmonicMeanSpeed="10.02" length="5.00" nVehEntered="5"/>
    <interval begin="3480.00" end="3510.00" id="0" nVehContrib="0" flow="0.00" occupancy="0.00" speed="-1.00" harmonicMeanSpeed="-1.00" length="-1.00" nVehEntered="0"/>
    <interval begin="3510.00" end="3540.00" id="0" nVehContrib="0" flow="0.00" occupancy="0.00" speed="-1.00" harmonicMeanSpeed="-1.00" length="-1.00" nVehEntered="0"/>
    <interval begin="3540.00" end="3570.00" id="0" nVehContrib="3" flow="360.00" occupancy="17.00" speed="3.51" harmonicMeanSpeed="2.94" length="5.00" nVehEntered="3"/>
    <interval begin="3570.00" end="3600.00" id="0" nVehContrib="14" flow="1680.00" occupancy="27.95" speed="8.72" harmonicMeanSpeed="8.35" length="5.00" nVehEntered="14"/>
    <interval begin="3600.00" end="3630.00" id="0" nVehContrib="12" flow="1440.00" occupancy="17.38" speed="11.85" harmonicMeanSpeed="11.51" length="5.00" nVehEntered="12"/>
    <interval begin="3630.00" end="3660.00" id="0" nVehContrib="6" flow="720.00" occupancy="5.88" speed="17.26" harmonicMeanSpeed="17.01" length="5.00" nVehEntered="6"/>
    <interval begin="3660.00" end="3690.00" id="0" nVehContrib="3" flow="360.00" occupancy="5.99" speed="9.78" harmonicMeanSpeed="8.35" length="5.00" nVehEntered="3"/>
    <interval begin="3690.00" end="3720.00" id="0" nVehContrib="0" flow="0.00" occupancy="0.00" speed="-1.00" harmonicMeanSpeed="-1.00" length="-1.00" nVehEntered="0"/>
    <interval begin="3720.00" end="3750.00" id="0" nVehContrib="0" flow="0.00" occupancy="0.00" speed="-1.00" harmonicMeanSpeed="-1.00" length="-1.00" nVehEntered="0"/>
    <interval begin="3750.00" end="3780.00" id="0" nVehContrib="10" flow="1200.00" occupancy="35.89" speed="6.06" harmonicMeanSpeed="4.73" length="5.00" nVehEntered="11"/>
    <interval begin="3780.00" end="3810.00" id="0" nVehContrib="16" flow="1920.00" occupancy="23.79" speed="11.02" harmonicMeanSpeed="10.91" length="5.00" nVehEntered="15"/>
    <interval begin="3810.00" end="3840.00" id="0" nVehContrib="6" flow="720.00" occupancy="5.80" speed="18.00" harmonicMeanSpeed="17.53" length="5.00" nVehEntered="7"/>
    <interval begin="3840.00" end="3870.00" id="0" nVehContrib="5" flow="600.00" occupancy="7.88" speed="12.21" harmonicMeanSpeed="10.45" length="5.00" nVehEntered="4"/>
    <interval begin="3870.00" end="3900.00" id="0" nVehContrib="0" flow="0.00" occupancy="0.00" speed="-1.00" harmonicMeanSpeed="-1.00" length="-1.00" nVehEntered="0"/>
    <interval begin="3900.00" end="3930.00" id="0" nVehContrib="0" flow="0.00" occupancy="0.00" speed="-1.00" harmonicMeanSpeed="-1.00" length="-1.00" nVehEntered="0"/>
    <interval begin="3930.00" end="3960.00" id="0" nVehContrib="5" flow="600.00" occupancy="24.32" speed="4.27" harmonicMeanSpeed="3.43" length="5.00" nVehEntered="5"/>
    <interval begin="3960.00" end="3990.00" id="0" nVehContrib="14" flow="1680.00" occupancy="25.60" speed="9.60" harmonicMeanSpeed="9.30" length="5.00" nVehEntered="15"/>
    <interval begin="3990.00" end="4020.00" id="0" nVehContrib="11" flow="1320.00" occupancy="15.06" speed="12.39" harmonicMeanSpeed="11.78" length="5.00" nVehEntered="10"/>
    <interval begin="4020.00" end="4050.00" id="0" nVehContrib="6" flow="720.00" occupancy="6.01" speed="17.19" harmonicMeanSpeed="16.65" length="5.00" nVehEntered="6"/>
    <interval begin="4050.00" end="4080.00" id="0" nVehContrib="2" flow="240.00" occupancy="4.84" speed="7.43" harmonicMeanSpeed="6.88" length="5.00" nVehEntered="2"/>
    <interval begin="4080.00" end="4110.00" id="0" nVehContrib="0" flow="0.00" occupancy="0.00" speed="-1.00" harmonicMeanSpeed="-1.00" length="-1.00" nVehEntered="0"/>
    <interval begin="4110.00" end="4140.00" id="0" nVehContrib="1" flow="120.00" occupancy="10.60" speed="1.57" harmonicMeanSpeed="1.57" length="5.00" nVehEntered="1"/>
    <interval begin="4140.00" end="4170.00" id="0" nVehContrib="13" flow="1560.00" occupancy="32.38" speed="7.49" harmonicMeanSpeed="6.69" length="5.00" nVehEntered="13"/>
    <interval begin="4170.00" end="4200.00" id="0" nVehContrib="14" flow="1680.00" occupancy="27.42" speed="8.68" harmonicMeanSpeed="8.51" length="5.00" nVehEntered="14"/>
    <interval begin="4200.00" end="4230.00" id="0" nVehContrib="6" flow="720.00" occupancy="5.76" speed="17.44" harmonicMeanSpeed="17.37" length="5.00" nVehEntered="6"/>
    <interval begin="4230.00" end="4260.00" id="0" nVehContrib="3" flow="360.00" occupancy="6.17" speed="9.12" harmonicMeanSpeed="8.11" length="5.00" nVehEntered="3"/>
    <interval begin="4260.00" end="4290.00" id="0" nVehContrib="0" flow="0.00" occupancy="0.00" speed="-1.00" harmonicMeanSpeed="-1.00" length="-1.00" nVehEntered="0"/>
    <interval begin="4290.00" end="4320.00" id="0" nVehContrib="0" flow="0.00" occupancy="0.00" speed="-1.00" harmonicMeanSpeed="-1.00" length="-1.00" nVehEntered="0"/>
    <interval begin="4320.00" end="4350.00" id="0" nVehContrib="7" flow="840.00" occupancy="33.07" speed="4.55" harmonicMeanSpeed="3.66" length="5.00" nVehEntered="8"/>
    <interval begin="4350.00" end="4380.00" id="0" nVehContrib="16" flow="1920.00" occupancy="23.33" speed="11.16" harmonicMeanSpeed="10.85" length="5.00" nVehEntered="15"/>
    <interval begin="4380.00" end="4410.00" id="0" nVehContrib="8" flow="960.00" occupancy="9.56" speed="14.55" harmonicMeanSpeed="13.94" length="5.00" nVehEntered="8"/>
    <interval begin="4410.00" end="4440.00" id="0" nVehContrib="6" flow="720.00" occupancy="9.01" speed="12.91" harmonicMeanSpeed="11.09" length="5.00" nVehEntered="6"/>
    <interval begin="4440.00" end="4470.00" id="0" nVehContrib="0" flow="0.00" occupancy="0.00" speed="-1.00" harmonicMeanSpeed="-1.00" length="-1.00" nVehEntered="0"/>
    <interval begin="4470.00" end="4500.00" id="0" nVehContrib="0" flow="0.00" occupancy="0.00" speed="-1.00" harmonicMeanSpeed="-1.00" length="-1.00" nVehEntered="0"/>
    <interval begin="4500.00" end="4530.00" id="0" nVehContrib="2" flow="240.00" occupancy="18.29" speed="2.37" harmonicMeanSpeed="2.08" length="5.00" nVehEntered="3"/>
    <interval begin="4530.00" end="4560.00" id="0" nVehContrib="14" flow="1680.00" occupancy="30.37" speed="8.00" harmonicMeanSpeed="7.36" length="5.00" nVehEntered="14"/>
    <interval begin="4560.00" end="4590.00" id="0" nVehContrib="14" flow="1680.00" occupancy="17.46" speed="13.01" harmonicMeanSpeed="12.71" length="5.00" nVehEntered="13"/>
    <interval begin="4590.00" end="4620.00" id="0" nVehContrib="5" flow="600.00" occupancy="5.72" speed="17.97" harmonicMeanSpeed="17.90" length="5.00" nVehEntered="6"/>
    <interval begin="4620.00" end="4650.00" id="0" nVehContrib="3" flow="360.00" occupancy="5.17" speed="9.44" harmonicMeanSpeed="8.01" length="5.00" nVehEntered="2"/>
    <interval begin="4650.00" end="4680.00" id="0" nVehContrib="0" flow="0.00" occupancy="0.00" speed="-1.00" harmonicMeanSpeed="-1.00" length="-1.00" nVehEntered="0"/>
    <interval begin="4680.00" end="4710.00" id="0" nVehContrib="0" flow="0.00" occupancy="0.00" speed="-1.00" harmonicMeanSpeed="-1.00" length="-1.00" nVehEntered="0"/>
    <interval begin="4710.00" end="4740.00" id="0" nVehContrib="10" flow="1200.00" occupancy="35.77" speed="6.07" harmonicMeanSpeed="4.87" length="5.00" nVehEntered="11"/>
    <interval begin="4740.00" end="4770.00" id="0" nVehContrib="17" flow="2040.00" occupancy="26.06" speed="10.32" harmonicMeanSpeed="10.27" length="5.00" nVehEntered="16"/>
    <interval begin="4770.00" end="4800.00" id="0" nVehContrib="6" flow="720.00" occupancy="6.01" speed="17.02" harmonicMeanSpeed="16.64" length="5.00" nVehEntered="6"/>
    <interval begin="4800.00" end="4830.00" id="0" nVehContrib="5" flow="600.00" occupancy="7.99" speed="12.28" harmonicMeanSpeed="10.43" length="5.00" nVehEntered="5"/>
    <interval begin="4830.00" end="4860.00" id="0" nVehContrib="0" flow="0.00" occupancy="0.00" speed="-1.00" harmonicMeanSpeed="-1.00" length="-1.00" nVehEntered="0"/>
    <interval begin="4860.00" end="4890.00" id="0" nVehContrib="0" flow="0.00" occupancy="0.00" speed="-1.00" harmonicMeanSpeed="-1.00" length="-1.00" nVehEntered="0"/>
    <interval begin="4890.00" end="4920.00" id="0" nVehContrib="5" flow="600.00" occupancy="27.09" speed="3.82" harmonicMeanSpeed="3.08" length="5.00" nVehEntered="5"/>
    <interval begin="4920.00" end="4950.00" id="0" nVehContrib="14" flow="1680.00" occupancy="27.78" speed="9.29" harmonicMeanSpeed="8.79" length="5.00" nVehEntered="15"/>
    <interval begin="4950.00" end="4980.00" id="0" nVehContrib="10" flow="1200.00" occupancy="10.01" speed="15.26" harmonicMeanSpeed="14.80" length="5.00" nVehEntered="9"/>
    <interval begin="4980.00" end="5010.00" id="0" nVehContrib="6" flow="720.00" occupancy="6.06" speed="16.95" harmonicMeanSpeed="16.50" length="5.00" nVehEntered="6"/>
    <interval begin="5010.00" end="5040.00" id="0" nVehContrib="2" flow="240.00" occupancy="5.25" speed="7.00" harmonicMeanSpeed="6.36" length="5.00" nVehEntered="2"/>
    <interval begin="5040.00" end="5070.00" id="0" nVehContrib="0" flow="0.00" occupancy="0.00" speed="-1.00" harmonicMeanSpeed="-1.00" length="-1.00" nVehEntered="0"/>
    <interval begin="5070.00" end="5100.00" id="0" nVehContrib="1" flow="120.00" occupancy="9.95" speed="1.68" harmonicMeanSpeed="1.68" length="5.00" nVehEntered="1"/>